# Converted from POSCAR to lammps format

50 atoms
4 atom types

0.000000    8.804194   xlo xhi
0.000000    8.804194   ylo yhi
0.000000   12.702278   zlo zhi

  0.000000    0.000000    0.000000   xy xz yz

Atoms

   1  1      2.026833 2.219376 2.594874
   2  1      4.615428 0.448061 9.351285
   3  1      6.500337 6.853554 -1.532393
   4  1      4.840064 9.116252 3.081906
   5  1      8.622117 4.150756 3.092731
   6  1      0.849635 4.096788 9.435638
   7  1      2.217096 6.926737 9.462441
   8  1      6.641013 2.580442 9.754132
   9  1      2.104071 2.129871 -1.371328
  10  1      6.649364 2.393193 5.920057
  11  1      7.017049 6.538051 7.180004
  12  1      2.258641 6.999702 14.452022
  13  1      6.449824 2.483379 0.683042
  14  1      2.364725 2.255755 6.336489
  15  1      2.407233 5.991026 5.204522
  16  1      6.505021 6.361764 3.245293
  17  1      0.355733 -0.130134 5.596144
  18  1      8.978973 -0.005560 11.899610
  19  1      4.312502 4.595322 0.723887
  20  1      4.778934 4.626658 7.168888
  21  2      4.444305 4.165644 3.888657
  22  2      4.364220 4.505362 10.234543
  23  3      8.770113 8.695634 2.366848
  24  3      -0.059187 0.047509 8.532390
  25  3      8.763084 4.364520 6.327690
  26  3      4.341740 0.167765 12.651401
  27  4      0.123863 1.688772 9.822191
  28  4      7.293494 -0.047013 3.777710
  29  4      -0.202743 7.169349 9.812933
  30  4      1.785923 8.736177 3.328488
  31  4      8.723262 1.629222 1.251319
  32  4      7.055700 0.131568 7.355456
  33  4      8.615907 7.037544 1.183223
  34  4      1.763708 0.003489 7.390989
  35  4      0.163348 2.682882 5.049508
  36  4      6.090323 0.314168 11.507169
  37  4      -0.353796 5.999398 5.147063
  38  4      2.790887 -0.223053 11.296945
  39  4      1.690235 4.517650 7.384889
  40  4      4.154975 1.794118 1.159628
  41  4      7.235592 4.058506 7.625328
  42  4      4.633437 7.328740 1.299074
  43  4      2.330467 4.491887 11.454925
  44  4      4.359977 2.227501 5.002521
  45  4      6.208310 4.427771 11.403017
  46  4      4.708569 5.995276 5.217900
  47  4      2.549991 4.571332 2.863070
  48  4      4.204168 2.686554 8.955919
  49  4      6.099193 4.349742 2.392891
  50  4      4.463455 6.400584 9.071164
